ITEM: TIMESTEP
1000
ITEM: NUMBER OF ATOMS
500
ITEM: BOX BOUNDS mm mm mm
0 0.03
0 0.03
0 0.06
ITEM: ATOMS id type x y z ix iy iz vx vy vz fx fy fz omegax omegay omegaz radius f_heattransfer[0] f_heatFlux[0] f_surfaceLiquidContent[0] 
68 1 0.00275523 0.00630182 0.00183976 0 0 0 -0.297818 -0.243485 0.120354 0 0 -4.52012e-06 -11.932 -714.659 -324.695 0.0005 273.15 0 23 
73 1 0.00752394 0.00957041 0.00146873 0 0 0 0.0788286 -0.0780153 -0.094672 -0.000119911 -0.000132231 -6.87022e-05 -520.633 -446.127 -330.039 0.0005 273.15 0 23 
57 1 0.0241608 0.00819355 0.00490653 0 0 0 0.0413438 -0.48194 -0.429633 0 0 -4.52012e-06 -779.984 -66.9118 1.88255e-12 0.0005 273.15 0 23 
2 1 0.0038086 0.0106036 0.00655862 0 0 0 0 0 0.611889 0 0 -4.52012e-06 0 0 0 0.0005 273.15 0 23 
47 1 0.011934 0.0118119 0.00543164 0 0 0 -0.155808 -0.025338 0.418076 0 0 -4.52012e-06 -98.3933 605.039 1.16109e-13 0.0005 273.15 0 23 
96 1 0.00190317 0.00328263 0.00577389 0 0 0 0 0 0.633725 0 0 -4.52012e-06 0 0 0 0.0005 273.15 0 23 
102 1 0.02796 0.0016717 0.0056948 0 0 0 0 0 0.636831 0 0 -4.52012e-06 0 0 0 0.0005 273.15 0 23 
59 1 0.0145929 0.00446955 0.00153971 0 0 0 -0.102751 0.0988366 0.100241 0 0 -4.52012e-06 -1216.34 -724.54 121.227 0.0005 273.15 0 23 
37 1 0.0211704 0.00510421 0.0053852 0 0 0 0 0 0.646274 0 0 -4.52012e-06 0 0 0 0.0005 273.15 0 23 
67 1 0.0282764 0.00604399 0.00550731 0 0 0 0 0 0.642261 0 0 -4.52012e-06 0 0 0 0.0005 273.15 0 23 
97 1 0.0108231 0.0068472 0.00597637 0 0 0 0 0 0.628719 0 0 -4.52012e-06 0 0 0 0.0005 273.15 0 23 
16 1 0.00399149 0.00987075 0.000469752 0 0 0 -0.198501 -0.0765935 -0.262891 0.00017243 0.000140747 0.000737412 -326.381 185.34 -270.768 0.0005 273.15 0 23 
125 1 0.0068858 0.00887295 0.00112634 0 0 0 0.0728936 0.0945905 -0.311999 0.000172688 -4.6694e-05 7.82185e-05 1125.11 48.6868 -310.095 0.0005 273.15 0 23 
95 1 0.0294995 0.00903739 0.00541466 0 0 0 0 0 0.643698 0 0 -4.52012e-06 0 0 0 0.0005 273.15 0 23 
11 1 0.00286142 0.010825 0.000736246 0 0 0 0.336739 -0.19579 -0.620633 0 0 -4.52012e-06 -197.167 -339.107 -3.29999e-12 0.0005 273.15 0 23 
20 1 0.0214299 0.0110018 0.00533904 0 0 0 0 0 0.646894 0 0 -4.52012e-06 0 0 0 0.0005 273.15 0 23 
79 1 0.00795889 0.01256 0.0059667 0 0 0 0 0 0.62899 0 0 -4.52012e-06 0 0 0 0.0005 273.15 0 23 
61 1 0.0145893 0.0126462 0.00480738 0 0 0 0.0250575 0.0103919 0.525624 0 0 -4.52012e-06 210.454 -339.843 13.009 0.0005 273.15 0 23 
76 1 0.0238741 0.0122336 0.00416961 0 0 0 -0.281913 -0.424777 -0.319703 0 0 -4.52012e-06 -798.32 529.824 -1.87747e-12 0.0005 273.15 0 23 
42 1 0.0264137 0.012128 0.00606324 0 0 0 0 0 0.626072 0 0 -4.52012e-06 0 0 0 0.0005 273.15 0 23 
83 1 0.020661 0.0144655 0.00556699 0 0 0 0 0 0.639333 0 0 -4.52012e-06 0 0 0 0.0005 273.15 0 23 
107 1 0.0224048 0.0138273 0.00592637 0 0 0 0 0 0.62964 0 0 -4.52012e-06 0 0 0 0.0005 273.15 0 23 
41 1 0.0006094 0.00609136 0.00425185 0 0 0 0 0 0.675253 0 0 -4.52012e-06 0 0 0 0.0005 273.15 0 23 
17 1 0.0100108 0.00792074 0.000871014 0 0 0 -0.390547 0.296391 -0.0738801 0 0 -4.52012e-06 558.655 724.048 -6.94778 0.0005 273.15 0 23 
52 1 0.00951139 0.013331 0.00478916 0 0 0 -0.0772864 0.00124941 0.638705 1.28934e-06 -2.08436e-08 4.51864e-06 -3.43579 -212.531 -3.88511e-11 0.0005 273.15 0 23 
58 1 0.0214443 0.0131725 0.00434339 0 0 0 0.0174446 -0.00476801 0.665232 1.42775e-06 -3.90238e-07 -4.68598e-06 -29.9483 -109.571 5.80643e-13 0.0005 273.15 0 23 
56 1 0.0205039 0.0134295 0.00445256 0 0 0 0.0169634 -0.00463648 0.659779 -1.42775e-06 3.90238e-07 -4.35426e-06 27.0052 98.8032 5.80643e-13 0.0005 273.15 0 23 
24 1 0.0204685 0.00232244 0.0031346 0 0 0 0 0 0.702327 0 0 -4.52012e-06 0 0 0 0.0005 273.15 0 23 
77 1 0.0172129 0.00378341 0.0039181 0 0 0 0 0 0.684144 0 0 -4.52012e-06 0 0 0 0.0005 273.15 0 23 
45 1 0.0125627 0.00566119 0.00314919 0 0 0 0.00480837 -0.0654111 0.25062 0 0 -4.52012e-06 -40.3354 -276.27 -6.94778 0.0005 273.15 0 23 
103 1 0.00126122 0.00869031 0.00354741 0 0 0 0 0 0.691994 0 0 -4.52012e-06 0 0 0 0.0005 273.15 0 23 
74 1 0.00444072 0.00755786 0.00153536 0 0 0 -0.273457 -0.443026 -0.328658 0 0 -4.52012e-06 -551.188 596.522 147.857 0.0005 273.15 0 23 
106 1 0.00240236 0.0131964 0.00411631 0 0 0 0 0 0.677655 0 0 -4.52012e-06 0 0 0 0.0005 273.15 0 23 
6 1 0.00937357 0.0133332 0.00381838 0 0 0 0.037229 -0.000601845 0.622856 -1.28934e-06 2.08436e-08 -1.35589e-05 -0.379933 -23.502 -3.88511e-11 0.0005 273.15 0 23 
53 1 0.0172412 0.00109086 0.00220306 0 0 0 0 0 0.723884 0 0 -4.52012e-06 0 0 0 0.0005 273.15 0 23 
105 1 0.00393971 0.00232157 0.0028109 0 0 0 0 0 0.710265 0 0 -4.52012e-06 0 0 0 0.0005 273.15 0 23 
109 1 0.0226784 0.00311053 0.00263794 0 0 0 0 0 0.719946 0 0 -4.52012e-06 0 0 0 0.0005 273.15 0 23 
110 1 0.0159856 0.00263545 0.00141082 0 0 0 0.365017 -0.503396 0.288183 0 0 -4.52012e-06 75.4393 54.0371 -3.65631 0.0005 273.15 0 23 
111 1 0.00632301 0.0111945 0.000521962 0 0 0 0.173967 0.0290784 0.0781986 0 0 -4.52012e-06 -333.173 -244.477 122.757 0.0005 273.15 0 23 
90 1 0.00909136 0.00426904 0.00116142 0 0 0 0 0 0.753137 0 0 -4.52012e-06 0 0 0 0.0005 273.15 0 23 
82 1 0.0151782 0.00621457 0.000789004 0 0 0 0.118911 0.207514 0.502486 0 0 -4.52012e-06 -527.436 243.023 124.884 0.0005 273.15 0 23 
64 1 0.0255598 0.00701788 0.00146559 0 0 0 0 0 0.746438 0 0 -4.52012e-06 0 0 0 0.0005 273.15 0 23 
23 1 0.00492757 0.0126139 0.00145053 0 0 0 -0.213196 0.560904 0.0332689 0 0 -4.52012e-06 -833.816 358.516 -10.1798 0.0005 273.15 0 23 
26 1 0.00884589 0.011466 0.00193159 0 0 0 0 0 0.730439 0 0 -4.52012e-06 0 0 0 0.0005 273.15 0 23 
69 1 0.0162481 0.0106289 0.00122061 0 0 0 0 0 0.751764 0 0 -4.52012e-06 0 0 0 0.0005 273.15 0 23 
10 1 0.0140855 0.0121289 0.000473621 0 0 0 0.130752 0.0104748 -0.724127 -1.26248e-06 -9.06942e-05 0.000955271 90.0664 265.186 13.009 0.0005 273.15 0 23 
123 1 0.00379374 0.00569526 0.000564534 0 0 0 0 0 0.761525 0 0 -4.52012e-06 0 0 0 0.0005 273.15 0 23 
99 1 0.00718042 0.00788892 0.00122756 0 0 0 -0.0711303 -0.0928727 -0.933624 8.82414e-05 0.000149924 9.42208e-05 191.672 267.556 314.581 0.0005 273.15 0 23 
25 1 0.00555624 0.00909906 0.00236336 0 0 0 0.263814 0.312476 -0.214588 0 0 -4.52012e-06 -921.913 598.205 61.1869 0.0005 273.15 0 23 
108 1 0.0270042 0.00997384 0.000383018 0 0 0 0 0 -0.113364 0 0 0.00430397 0 0 0 0.0005 273.15 0 23 
124 1 0.0138918 0.0101256 0.000931695 0 0 0 0 0 -1.09805 0 0 -4.52012e-06 0 0 0 0.0005 273.15 0 23 
114 1 0.029448 0.0112733 0.000518538 0 0 0 0 0 0.76578 0 0 -4.52012e-06 0 0 0 0.0005 273.15 0 23 
78 1 0.00074386 0.0124006 0.00454222 0 0 0 0.236107 0.133617 0.157415 0 0 -4.52012e-06 -197.167 -351.624 300.287 0.0005 273.15 0 23 
28 1 0.00365827 0.00729288 0.00223398 0 0 0 0 0 -1.09805 0 0 -4.52012e-06 0 0 0 0.0005 273.15 0 23 
8 1 0.00798041 0.00772864 0.00189242 0 0 0 0.131818 -0.102515 -0.956203 -0.000141019 2.90016e-05 -0.000121818 -193.427 17.6752 194.444 0.0005 273.15 0 23 
104 1 0.00877768 0.00822371 0.00134835 0 0 0 0 0 -1.09805 0 0 -4.52012e-06 0 0 0 0.0005 273.15 0 23 
38 1 0.0206211 0.00930274 0.00190152 0 0 0 0 0 -1.09805 0 0 -4.52012e-06 0 0 0 0.0005 273.15 0 23 
62 1 0.0191221 0.0129146 0.00157307 0 0 0 0 0 -1.09805 0 0 -4.52012e-06 0 0 0 0.0005 273.15 0 23 
100 1 0.00416776 0.0137509 0.00263407 0 0 0 0 0 -1.09805 0 0 -4.52012e-06 0 0 0 0.0005 273.15 0 23 
4 1 0.0274652 0.0136733 0.00272345 0 0 0 0 0 -1.09805 0 0 -4.52012e-06 0 0 0 0.0005 273.15 0 23 
85 1 0.0130127 0.00243242 0.00297943 0 0 0 0 0 -1.09805 0 0 -4.52012e-06 0 0 0 0.0005 273.15 0 23 
116 1 0.0141393 0.00468507 0.00346571 0 0 0 0 0 -1.09805 0 0 -4.52012e-06 0 0 0 0.0005 273.15 0 23 
29 1 0.0239838 0.0102573 0.00622176 0 0 0 -0.0413438 0.48194 -0.0594711 0 0 -4.52012e-06 -779.984 -66.9118 1.88255e-12 0.0005 273.15 0 23 
51 1 0.0235468 0.0103649 0.00429479 0 0 0 0 0 -1.09805 0 0 -4.52012e-06 0 0 0 0.0005 273.15 0 23 
98 1 0.0247107 0.0115875 0.00320579 0 0 0 0 0 -1.09805 0 0 -4.52012e-06 0 0 0 0.0005 273.15 0 23 
119 1 0.0135173 0.0125523 0.00317775 0 0 0 0 0 -1.09805 0 0 -4.52012e-06 0 0 0 0.0005 273.15 0 23 
91 1 0.024839 0.0136874 0.00504338 0 0 0 0.281913 0.424777 -0.134257 0 0 -4.52012e-06 -798.32 529.824 -1.87747e-12 0.0005 273.15 0 23 
5 1 0.0275632 0.0127674 0.00324874 0 0 0 0 0 -1.09805 0 0 -4.52012e-06 0 0 0 0.0005 273.15 0 23 
7 1 0.00111052 0.00224684 0.00474626 0 0 0 0 0 -1.09805 0 0 -4.52012e-06 0 0 0 0.0005 273.15 0 23 
84 1 0.0274837 0.00419336 0.00510713 0 0 0 0 0 -1.09805 0 0 -4.52012e-06 0 0 0 0.0005 273.15 0 23 
40 1 0.0240978 0.00591674 0.0047369 0 0 0 0 0 -1.09805 0 0 -4.52012e-06 0 0 0 0.0005 273.15 0 23 
18 1 0.0143254 0.00836395 0.00523591 0 0 0 0 0 -1.09805 0 0 -4.52012e-06 0 0 0 0.0005 273.15 0 23 
46 1 0.00618816 0.0121856 0.00483757 0 0 0 0 0 -1.09805 0 0 -4.52012e-06 0 0 0 0.0005 273.15 0 23 
14 1 0.00701155 0.0015365 0.00727621 0 0 0 0 0 -1.09805 0 0 -4.52012e-06 0 0 0 0.0005 273.15 0 23 
122 1 0.00835056 0.00393283 0.0075145 0 0 0 0 0 -1.09805 0 0 -4.52012e-06 0 0 0 0.0005 273.15 0 23 
117 1 0.0256899 0.00470304 0.00757353 0 0 0 0 0 -1.09805 0 0 -4.52012e-06 0 0 0 0.0005 273.15 0 23 
86 1 0.0128437 0.00709491 0.00774252 0 0 0 0 0 -1.09805 0 0 -4.52012e-06 0 0 0 0.0005 273.15 0 23 
3 1 0.0151037 0.00871208 0.00721782 0 0 0 0 0 -1.09805 0 0 -4.52012e-06 0 0 0 0.0005 273.15 0 23 
33 1 0.0105522 0.0101258 0.00768382 0 0 0 0 0 -1.09805 0 0 -4.52012e-06 0 0 0 0.0005 273.15 0 23 
112 1 0.0140097 0.0100981 0.00699664 0 0 0 0 0 -1.09805 0 0 -4.52012e-06 0 0 0 0.0005 273.15 0 23 
118 1 0.00576515 0.0124159 0.00711703 0 0 0 0 0 -1.09805 0 0 -4.52012e-06 0 0 0 0.0005 273.15 0 23 
101 1 0.0282755 0.0133628 0.0067484 0 0 0 0 0 -1.09805 0 0 -4.52012e-06 0 0 0 0.0005 273.15 0 23 
48 1 0.0104355 0.00503328 0.00822638 0 0 0 0 0 -1.09805 0 0 -4.52012e-06 0 0 0 0.0005 273.15 0 23 
80 1 0.00449271 0.0144472 0.00829497 0 0 0 0 0 -1.09805 0 0 -4.52012e-06 0 0 0 0.0005 273.15 0 23 
88 1 0.0149528 0.00105016 0.00954639 0 0 0 0 0 -1.09805 0 0 -4.52012e-06 0 0 0 0.0005 273.15 0 23 
54 1 0.00262785 0.00317785 0.00984193 0 0 0 0 0 -1.09805 0 0 -4.52012e-06 0 0 0 0.0005 273.15 0 23 
22 1 0.00325262 0.00342332 0.0109756 0 0 0 0 0 -1.09805 0 0 -4.52012e-06 0 0 0 0.0005 273.15 0 23 
35 1 0.0203386 0.00524575 0.0100765 0 0 0 0 0 -1.09805 0 0 -4.52012e-06 0 0 0 0.0005 273.15 0 23 
115 1 0.0221468 0.00570184 0.0110708 0 0 0 0 0 -1.09805 0 0 -4.52012e-06 0 0 0 0.0005 273.15 0 23 
13 1 0.0278354 0.00502531 0.0104028 0 0 0 0 0 -1.09805 0 0 -4.52012e-06 0 0 0 0.0005 273.15 0 23 
65 1 0.00467563 0.00668803 0.0110378 0 0 0 0 0 -1.09805 0 0 -4.52012e-06 0 0 0 0.0005 273.15 0 23 
63 1 0.0161263 0.00747605 0.00960957 0 0 0 0 0 -1.09805 0 0 -4.52012e-06 0 0 0 0.0005 273.15 0 23 
12 1 0.0266793 0.00980993 0.0103792 0 0 0 0 0 -1.09805 0 0 -4.52012e-06 0 0 0 0.0005 273.15 0 23 
1 1 0.0169514 0.0109916 0.0106953 0 0 0 0 0 -1.09805 0 0 -4.52012e-06 0 0 0 0.0005 273.15 0 23 
15 1 0.0187238 0.010274 0.00972438 0 0 0 0 0 -1.09805 0 0 -4.52012e-06 0 0 0 0.0005 273.15 0 23 
121 1 0.0196626 0.0100072 0.0111222 0 0 0 0 0 -1.09805 0 0 -4.52012e-06 0 0 0 0.0005 273.15 0 23 
87 1 0.0209729 0.0108657 0.00977137 0 0 0 0 0 -1.09805 0 0 -4.52012e-06 0 0 0 0.0005 273.15 0 23 
21 1 0.00591685 0.0122081 0.0111076 0 0 0 0 0 -1.09805 0 0 -4.52012e-06 0 0 0 0.0005 273.15 0 23 
9 1 0.0151777 0.00110378 0.011899 0 0 0 0 0 -1.09805 0 0 -4.52012e-06 0 0 0 0.0005 273.15 0 23 
71 1 0.0247094 0.000612 0.0112791 0 0 0 0 0 -1.09805 0 0 -4.52012e-06 0 0 0 0.0005 273.15 0 23 
94 1 0.00610848 0.00263618 0.0122176 0 0 0 0 0 -1.09805 0 0 -4.52012e-06 0 0 0 0.0005 273.15 0 23 
113 1 0.00868232 0.0018874 0.0125068 0 0 0 0 0 -1.09805 0 0 -4.52012e-06 0 0 0 0.0005 273.15 0 23 
81 1 0.0110707 0.00247018 0.0120097 0 0 0 0 0 -1.09805 0 0 -4.52012e-06 0 0 0 0.0005 273.15 0 23 
30 1 0.0211641 0.012508 0.0120175 0 0 0 0 0 -1.09805 0 0 -4.52012e-06 0 0 0 0.0005 273.15 0 23 
49 1 0.0282521 0.011727 0.0120862 0 0 0 0 0 -1.09805 0 0 -4.52012e-06 0 0 0 0.0005 273.15 0 23 
60 1 0.0243553 0.00971809 0.0133127 0 0 0 0 0 -1.09805 0 0 -4.52012e-06 0 0 0 0.0005 273.15 0 23 
27 1 0.0202356 0.0100858 0.0143795 0 0 0 0 0 -1.09805 0 0 -4.52012e-06 0 0 0 0.0005 273.15 0 23 
66 1 0.0225961 0.00108602 0.0149272 0 0 0 0 0 -1.09805 0 0 -4.52012e-06 0 0 0 0.0005 273.15 0 23 
19 1 0.00472163 0.00320122 0.0153944 0 0 0 0 0 -1.09805 0 0 -4.52012e-06 0 0 0 0.0005 273.15 0 23 
36 1 0.0131541 0.0056725 0.0149642 0 0 0 0 0 -1.09805 0 0 -4.52012e-06 0 0 0 0.0005 273.15 0 23 
31 1 0.0257186 0.00654267 0.0146723 0 0 0 0 0 -1.09805 0 0 -4.52012e-06 0 0 0 0.0005 273.15 0 23 
89 1 0.0137435 0.00829821 0.0154365 0 0 0 0 0 -1.09805 0 0 -4.52012e-06 0 0 0 0.0005 273.15 0 23 
75 1 0.0196963 0.00748962 0.0154731 0 0 0 0 0 -1.09805 0 0 -4.52012e-06 0 0 0 0.0005 273.15 0 23 
93 1 0.0117088 0.0100323 0.0152079 0 0 0 0 0 -1.09805 0 0 -4.52012e-06 0 0 0 0.0005 273.15 0 23 
92 1 0.00698621 0.0135772 0.0145692 0 0 0 0 0 -1.09805 0 0 -4.52012e-06 0 0 0 0.0005 273.15 0 23 
72 1 0.00562162 0.00627498 0.0168358 0 0 0 0 0 -1.09805 0 0 -4.52012e-06 0 0 0 0.0005 273.15 0 23 
70 1 0.0196927 0.00756643 0.0175763 0 0 0 0 0 -1.09805 0 0 -4.52012e-06 0 0 0 0.0005 273.15 0 23 
43 1 0.0127814 0.00837768 0.0167734 0 0 0 0 0 -1.09805 0 0 -4.52012e-06 0 0 0 0.0005 273.15 0 23 
32 1 0.00407135 0.0135622 0.0176928 0 0 0 0 0 -1.09805 0 0 -4.52012e-06 0 0 0 0.0005 273.15 0 23 
39 1 0.0163238 0.00173051 0.019002 0 0 0 0 0 -1.09805 0 0 -4.52012e-06 0 0 0 0.0005 273.15 0 23 
34 1 0.029424 0.004889 0.0182396 0 0 0 0 0 -1.09805 0 0 -4.52012e-06 0 0 0 0.0005 273.15 0 23 
44 1 0.00830613 0.00557263 0.0179714 0 0 0 0 0 -1.09805 0 0 -4.52012e-06 0 0 0 0.0005 273.15 0 23 
55 1 0.000843347 0.00706667 0.0184359 0 0 0 0 0 -1.09805 0 0 -4.52012e-06 0 0 0 0.0005 273.15 0 23 
50 1 0.0206799 0.00829296 0.0189631 0 0 0 0 0 -1.09805 0 0 -4.52012e-06 0 0 0 0.0005 273.15 0 23 
120 1 0.0160088 0.00956829 0.0181432 0 0 0 0 0 -1.09805 0 0 -4.52012e-06 0 0 0 0.0005 273.15 0 23 
222 1 0.0178428 0.00175287 0.0203574 0 0 0 0 0 -1.09805 0 0 -4.52012e-06 0 0 0 0.0005 273.15 0 23 
166 1 0.0280308 0.0117389 0.0203445 0 0 0 0 0 -1.09805 0 0 -4.52012e-06 0 0 0 0.0005 273.15 0 23 
233 1 0.0123879 0.001976 0.0206436 0 0 0 0 0 -1.09805 0 0 -4.52012e-06 0 0 0 0.0005 273.15 0 23 
249 1 0.0208506 0.00324692 0.0215155 0 0 0 0 0 -1.09805 0 0 -4.52012e-06 0 0 0 0.0005 273.15 0 23 
212 1 0.0145802 0.00498728 0.0220821 0 0 0 0 0 -1.09805 0 0 -4.52012e-06 0 0 0 0.0005 273.15 0 23 
189 1 0.00968411 0.00545673 0.0220852 0 0 0 0 0 -1.09805 0 0 -4.52012e-06 0 0 0 0.0005 273.15 0 23 
193 1 0.0188705 0.0135962 0.0220051 0 0 0 0 0 -1.09805 0 0 -4.52012e-06 0 0 0 0.0005 273.15 0 23 
141 1 0.025259 0.0141683 0.0218393 0 0 0 0 0 -1.09805 0 0 -4.52012e-06 0 0 0 0.0005 273.15 0 23 
232 1 0.0216513 0.0113882 0.0235351 0 0 0 0 0 -1.09805 0 0 -4.52012e-06 0 0 0 0.0005 273.15 0 23 
214 1 0.024052 0.0110714 0.023101 0 0 0 0 0 -1.09805 0 0 -4.52012e-06 0 0 0 0.0005 273.15 0 23 
234 1 0.0190244 0.00155932 0.0243457 0 0 0 0 0 -1.09805 0 0 -4.52012e-06 0 0 0 0.0005 273.15 0 23 
179 1 0.00886811 0.00318902 0.0250707 0 0 0 0 0 -1.09805 0 0 -4.52012e-06 0 0 0 0.0005 273.15 0 23 
210 1 0.00130202 0.00649655 0.0245668 0 0 0 0 0 -1.09805 0 0 -4.52012e-06 0 0 0 0.0005 273.15 0 23 
168 1 0.00791524 0.00569601 0.0251759 0 0 0 0 0 -1.09805 0 0 -4.52012e-06 0 0 0 0.0005 273.15 0 23 
181 1 0.0294854 0.0101674 0.0253378 0 0 0 0 0 -1.09805 0 0 -4.52012e-06 0 0 0 0.0005 273.15 0 23 
188 1 0.00794818 0.0124905 0.0254056 0 0 0 0 0 -1.09805 0 0 -4.52012e-06 0 0 0 0.0005 273.15 0 23 
244 1 0.014617 0.0140398 0.0248607 0 0 0 0 0 -1.09805 0 0 -4.52012e-06 0 0 0 0.0005 273.15 0 23 
154 1 0.0196711 0.00591022 0.0256209 0 0 0 0 0 -1.09805 0 0 -4.52012e-06 0 0 0 0.0005 273.15 0 23 
229 1 0.00552719 0.00771307 0.0267487 0 0 0 0 0 -1.09805 0 0 -4.52012e-06 0 0 0 0.0005 273.15 0 23 
145 1 0.0126296 0.00794512 0.0266238 0 0 0 0 0 -1.09805 0 0 -4.52012e-06 0 0 0 0.0005 273.15 0 23 
191 1 0.0084994 0.00969706 0.0266014 0 0 0 0 0 -1.09805 0 0 -4.52012e-06 0 0 0 0.0005 273.15 0 23 
142 1 0.0109537 0.00910715 0.0272151 0 0 0 0 0 -1.09805 0 0 -4.52012e-06 0 0 0 0.0005 273.15 0 23 
156 1 0.00748041 0.0116311 0.0265886 0 0 0 0 0 -1.09805 0 0 -4.52012e-06 0 0 0 0.0005 273.15 0 23 
236 1 0.0216586 0.0126824 0.0269951 0 0 0 0 0 -1.09805 0 0 -4.52012e-06 0 0 0 0.0005 273.15 0 23 
164 1 0.00531727 0.0136999 0.0273758 0 0 0 0 0 -1.09805 0 0 -4.52012e-06 0 0 0 0.0005 273.15 0 23 
209 1 0.0284127 0.0114383 0.0278075 0 0 0 0 0 -1.09805 0 0 -4.52012e-06 0 0 0 0.0005 273.15 0 23 
139 1 0.0242308 0.0133161 0.0276199 0 0 0 0 0 -1.09805 0 0 -4.52012e-06 0 0 0 0.0005 273.15 0 23 
182 1 0.0101519 0.00661892 0.0279808 0 0 0 0 0 -1.09805 0 0 -4.52012e-06 0 0 0 0.0005 273.15 0 23 
245 1 0.00097911 0.00794962 0.0280009 0 0 0 0 0 -1.09805 0 0 -4.52012e-06 0 0 0 0.0005 273.15 0 23 
127 1 0.0159514 0.00751051 0.0279436 0 0 0 0 0 -1.09805 0 0 -4.52012e-06 0 0 0 0.0005 273.15 0 23 
138 1 0.0113272 0.0128815 0.0283062 0 0 0 0 0 -1.09805 0 0 -4.52012e-06 0 0 0 0.0005 273.15 0 23 
219 1 0.0245137 0.00587819 0.0291572 0 0 0 0 0 -1.09805 0 0 -4.52012e-06 0 0 0 0.0005 273.15 0 23 
172 1 0.0143325 0.00808799 0.0291584 0 0 0 0 0 -1.09805 0 0 -4.52012e-06 0 0 0 0.0005 273.15 0 23 
194 1 0.00756265 0.0127093 0.0288192 0 0 0 0 0 -1.09805 0 0 -4.52012e-06 0 0 0 0.0005 273.15 0 23 
167 1 0.0271367 0.0135339 0.0288523 0 0 0 0 0 -1.09805 0 0 -4.52012e-06 0 0 0 0.0005 273.15 0 23 
239 1 0.0179931 0.00484704 0.0479149 0 0 0 0 0 -1.09805 0 0 -4.52012e-06 0 0 0 0.0005 273.15 0 23 
130 1 0.0179079 0.00904887 0.0483228 0 0 0 0 0 -1.09805 0 0 -4.52012e-06 0 0 0 0.0005 273.15 0 23 
157 1 0.00226216 0.00508983 0.0489088 0 0 0 0 0 -1.09805 0 0 -4.52012e-06 0 0 0 0.0005 273.15 0 23 
152 1 0.0288697 0.0114478 0.046666 0 0 0 0 0 -1.09805 0 0 -4.52012e-06 0 0 0 0.0005 273.15 0 23 
187 1 0.0100111 0.00800728 0.0462611 0 0 0 0 0 -1.09805 0 0 -4.52012e-06 0 0 0 0.0005 273.15 0 23 
241 1 0.0225788 0.00624822 0.0470283 0 0 0 0 0 -1.09805 0 0 -4.52012e-06 0 0 0 0.0005 273.15 0 23 
201 1 0.0250611 0.000735354 0.0477121 0 0 0 0 0 -1.09805 0 0 -4.52012e-06 0 0 0 0.0005 273.15 0 23 
159 1 0.0126322 0.0143716 0.0452059 0 0 0 0 0 -1.09805 0 0 -4.52012e-06 0 0 0 0.0005 273.15 0 23 
218 1 0.0192737 0.0113951 0.0454124 0 0 0 0 0 -1.09805 0 0 -4.52012e-06 0 0 0 0.0005 273.15 0 23 
211 1 0.0111453 0.0144581 0.0457153 0 0 0 0 0 -1.09805 0 0 -4.52012e-06 0 0 0 0.0005 273.15 0 23 
174 1 0.0267528 0.0117834 0.0452081 0 0 0 0 0 -1.09805 0 0 -4.52012e-06 0 0 0 0.0005 273.15 0 23 
199 1 0.0284836 0.00703979 0.0450604 0 0 0 0 0 -1.09805 0 0 -4.52012e-06 0 0 0 0.0005 273.15 0 23 
240 1 0.0225625 0.00356356 0.0449447 0 0 0 0 0 -1.09805 0 0 -4.52012e-06 0 0 0 0.0005 273.15 0 23 
237 1 0.0239082 0.00243994 0.0455944 0 0 0 0 0 -1.09805 0 0 -4.52012e-06 0 0 0 0.0005 273.15 0 23 
247 1 0.0276696 0.00669077 0.0429883 0 0 0 0 0 -1.09805 0 0 -4.52012e-06 0 0 0 0.0005 273.15 0 23 
161 1 0.0120308 0.00073263 0.0461471 0 0 0 0 0 -1.09805 0 0 -4.52012e-06 0 0 0 0.0005 273.15 0 23 
183 1 0.00141184 0.0143983 0.0437196 0 0 0 0 0 -1.09805 0 0 -4.52012e-06 0 0 0 0.0005 273.15 0 23 
197 1 0.0127694 0.0123554 0.0443346 0 0 0 0 0 -1.09805 0 0 -4.52012e-06 0 0 0 0.0005 273.15 0 23 
186 1 0.00201262 0.00809288 0.0434678 0 0 0 0 0 -1.09805 0 0 -4.52012e-06 0 0 0 0.0005 273.15 0 23 
248 1 0.0236427 0.00602498 0.0431846 0 0 0 0 0 -1.09805 0 0 -4.52012e-06 0 0 0 0.0005 273.15 0 23 
129 1 0.0222093 0.00548948 0.0428865 0 0 0 0 0 -1.09805 0 0 -4.52012e-06 0 0 0 0.0005 273.15 0 23 
216 1 0.00568768 0.00644894 0.0440455 0 0 0 0 0 -1.09805 0 0 -4.52012e-06 0 0 0 0.0005 273.15 0 23 
215 1 0.00560177 0.0044328 0.0435389 0 0 0 0 0 -1.09805 0 0 -4.52012e-06 0 0 0 0.0005 273.15 0 23 
226 1 0.00573677 0.013944 0.0427542 0 0 0 0 0 -1.09805 0 0 -4.52012e-06 0 0 0 0.0005 273.15 0 23 
151 1 0.0112901 0.00105477 0.0444435 0 0 0 0 0 -1.09805 0 0 -4.52012e-06 0 0 0 0.0005 273.15 0 23 
153 1 0.00309638 0.0104383 0.0415959 0 0 0 0 0 -1.09805 0 0 -4.52012e-06 0 0 0 0.0005 273.15 0 23 
144 1 0.00946048 0.00111722 0.0436196 0 0 0 0 0 -1.09805 0 0 -4.52012e-06 0 0 0 0.0005 273.15 0 23 
135 1 0.0218366 0.00921471 0.0426509 0 0 0 0 0 -1.09805 0 0 -4.52012e-06 0 0 0 0.0005 273.15 0 23 
224 1 0.0156687 0.00204266 0.0414844 0 0 0 0 0 -1.09805 0 0 -4.52012e-06 0 0 0 0.0005 273.15 0 23 
177 1 0.0168508 0.0055662 0.0419023 0 0 0 0 0 -1.09805 0 0 -4.52012e-06 0 0 0 0.0005 273.15 0 23 
163 1 0.0160185 0.00110736 0.0423501 0 0 0 0 0 -1.09805 0 0 -4.52012e-06 0 0 0 0.0005 273.15 0 23 
140 1 0.0253399 0.00408555 0.0411982 0 0 0 0 0 -1.09805 0 0 -4.52012e-06 0 0 0 0.0005 273.15 0 23 
220 1 0.00175271 0.0138984 0.0401782 0 0 0 0 0 -1.09805 0 0 -4.52012e-06 0 0 0 0.0005 273.15 0 23 
143 1 0.00131426 0.00437026 0.0414793 0 0 0 0 0 -1.09805 0 0 -4.52012e-06 0 0 0 0.0005 273.15 0 23 
217 1 0.000726332 0.0137279 0.040491 0 0 0 0 0 -1.09805 0 0 -4.52012e-06 0 0 0 0.0005 273.15 0 23 
207 1 0.0112367 0.00255016 0.0305392 0 0 0 0 0 -1.09805 0 0 -4.52012e-06 0 0 0 0.0005 273.15 0 23 
195 1 0.0166559 0.0025466 0.0310019 0 0 0 0 0 -1.09805 0 0 -4.52012e-06 0 0 0 0.0005 273.15 0 23 
178 1 0.00995706 0.00417092 0.0308051 0 0 0 0 0 -1.09805 0 0 -4.52012e-06 0 0 0 0.0005 273.15 0 23 
133 1 0.0146318 0.00370146 0.0305008 0 0 0 0 0 -1.09805 0 0 -4.52012e-06 0 0 0 0.0005 273.15 0 23 
136 1 0.020997 0.0033614 0.0296405 0 0 0 0 0 -1.09805 0 0 -4.52012e-06 0 0 0 0.0005 273.15 0 23 
205 1 0.0179308 0.00684123 0.0305156 0 0 0 0 0 -1.09805 0 0 -4.52012e-06 0 0 0 0.0005 273.15 0 23 
221 1 0.0121193 0.00914739 0.0300021 0 0 0 0 0 -1.09805 0 0 -4.52012e-06 0 0 0 0.0005 273.15 0 23 
231 1 0.0186079 0.0115973 0.0304167 0 0 0 0 0 -1.09805 0 0 -4.52012e-06 0 0 0 0.0005 273.15 0 23 
206 1 0.00380727 0.0143961 0.0309213 0 0 0 0 0 -1.09805 0 0 -4.52012e-06 0 0 0 0.0005 273.15 0 23 
146 1 0.0237598 0.000654587 0.0328151 0 0 0 0 0 -1.09805 0 0 -4.52012e-06 0 0 0 0.0005 273.15 0 23 
246 1 0.00845044 0.00327935 0.0315613 0 0 0 0 0 -1.09805 0 0 -4.52012e-06 0 0 0 0.0005 273.15 0 23 
198 1 0.0209611 0.00196385 0.0323985 0 0 0 0 0 -1.09805 0 0 -4.52012e-06 0 0 0 0.0005 273.15 0 23 
137 1 0.0262286 0.00211823 0.0317638 0 0 0 0 0 -1.09805 0 0 -4.52012e-06 0 0 0 0.0005 273.15 0 23 
228 1 0.0274392 0.00552841 0.0314011 0 0 0 0 0 -1.09805 0 0 -4.52012e-06 0 0 0 0.0005 273.15 0 23 
230 1 0.0225986 0.00723752 0.0316643 0 0 0 0 0 -1.09805 0 0 -4.52012e-06 0 0 0 0.0005 273.15 0 23 
185 1 0.000772337 0.0103345 0.0320238 0 0 0 0 0 -1.09805 0 0 -4.52012e-06 0 0 0 0.0005 273.15 0 23 
155 1 0.0287395 0.0120962 0.0324168 0 0 0 0 0 -1.09805 0 0 -4.52012e-06 0 0 0 0.0005 273.15 0 23 
235 1 0.0157237 0.0141106 0.0319393 0 0 0 0 0 -1.09805 0 0 -4.52012e-06 0 0 0 0.0005 273.15 0 23 
203 1 0.00701551 0.00483234 0.0336465 0 0 0 0 0 -1.09805 0 0 -4.52012e-06 0 0 0 0.0005 273.15 0 23 
200 1 0.0149373 0.00546957 0.0337941 0 0 0 0 0 -1.09805 0 0 -4.52012e-06 0 0 0 0.0005 273.15 0 23 
192 1 0.00794947 0.00832999 0.0337634 0 0 0 0 0 -1.09805 0 0 -4.52012e-06 0 0 0 0.0005 273.15 0 23 
160 1 0.00292123 0.00858701 0.0331852 0 0 0 0 0 -1.09805 0 0 -4.52012e-06 0 0 0 0.0005 273.15 0 23 
173 1 0.0222793 0.00926532 0.034037 0 0 0 0 0 -1.09805 0 0 -4.52012e-06 0 0 0 0.0005 273.15 0 23 
202 1 0.0229509 0.0130816 0.0331897 0 0 0 0 0 -1.09805 0 0 -4.52012e-06 0 0 0 0.0005 273.15 0 23 
158 1 0.0169524 0.00412909 0.0348411 0 0 0 0 0 -1.09805 0 0 -4.52012e-06 0 0 0 0.0005 273.15 0 23 
132 1 0.0157994 0.00505816 0.0345646 0 0 0 0 0 -1.09805 0 0 -4.52012e-06 0 0 0 0.0005 273.15 0 23 
131 1 0.00926867 0.00922787 0.0349841 0 0 0 0 0 -1.09805 0 0 -4.52012e-06 0 0 0 0.0005 273.15 0 23 
170 1 0.013133 0.00844339 0.0356548 0 0 0 0 0 -1.09805 0 0 -4.52012e-06 0 0 0 0.0005 273.15 0 23 
149 1 0.00428358 0.0120874 0.0360464 0 0 0 0 0 -1.09805 0 0 -4.52012e-06 0 0 0 0.0005 273.15 0 23 
227 1 0.0167074 0.000851071 0.0374142 0 0 0 0 0 -1.09805 0 0 -4.52012e-06 0 0 0 0.0005 273.15 0 23 
162 1 0.0116794 0.00307247 0.0374902 0 0 0 0 0 -1.09805 0 0 -4.52012e-06 0 0 0 0.0005 273.15 0 23 
184 1 0.0136499 0.00200684 0.0372983 0 0 0 0 0 -1.09805 0 0 -4.52012e-06 0 0 0 0.0005 273.15 0 23 
128 1 0.00567155 0.00584899 0.0374031 0 0 0 0 0 -1.09805 0 0 -4.52012e-06 0 0 0 0.0005 273.15 0 23 
208 1 0.00959717 0.00984196 0.0370197 0 0 0 0 0 -1.09805 0 0 -4.52012e-06 0 0 0 0.0005 273.15 0 23 
213 1 0.0105468 0.00988389 0.0367 0 0 0 0 0 -1.09805 0 0 -4.52012e-06 0 0 0 0.0005 273.15 0 23 
150 1 0.0195268 0.00867813 0.0362494 0 0 0 0 0 -1.09805 0 0 -4.52012e-06 0 0 0 0.0005 273.15 0 23 
243 1 0.00964397 0.0130638 0.0371296 0 0 0 0 0 -1.09805 0 0 -4.52012e-06 0 0 0 0.0005 273.15 0 23 
176 1 0.0086267 0.0144597 0.0373743 0 0 0 0 0 -1.09805 0 0 -4.52012e-06 0 0 0 0.0005 273.15 0 23 
134 1 0.0237193 0.00529745 0.037985 0 0 0 0 0 -1.09805 0 0 -4.52012e-06 0 0 0 0.0005 273.15 0 23 
204 1 0.00483637 0.00740999 0.0390236 0 0 0 0 0 -1.09805 0 0 -4.52012e-06 0 0 0 0.0005 273.15 0 23 
126 1 0.0114871 0.00725917 0.0393377 0 0 0 0 0 -1.09805 0 0 -4.52012e-06 0 0 0 0.0005 273.15 0 23 
225 1 0.00655904 0.00893169 0.0394656 0 0 0 0 0 -1.09805 0 0 -4.52012e-06 0 0 0 0.0005 273.15 0 23 
147 1 0.0110573 0.0100634 0.0393146 0 0 0 0 0 -1.09805 0 0 -4.52012e-06 0 0 0 0.0005 273.15 0 23 
180 1 0.0209195 0.0120768 0.0383314 0 0 0 0 0 -1.09805 0 0 -4.52012e-06 0 0 0 0.0005 273.15 0 23 
165 1 0.00310567 0.0135021 0.0384085 0 0 0 0 0 -1.09805 0 0 -4.52012e-06 0 0 0 0.0005 273.15 0 23 
190 1 0.00280611 0.00115103 0.0403421 0 0 0 0 0 -1.09805 0 0 -4.52012e-06 0 0 0 0.0005 273.15 0 23 
175 1 0.00979282 0.00400076 0.0409791 0 0 0 0 0 -1.09805 0 0 -4.52012e-06 0 0 0 0.0005 273.15 0 23 
196 1 0.0161439 0.00544926 0.0408458 0 0 0 0 0 -1.09805 0 0 -4.52012e-06 0 0 0 0.0005 273.15 0 23 
223 1 0.00426518 0.00745824 0.040871 0 0 0 0 0 -1.09805 0 0 -4.52012e-06 0 0 0 0.0005 273.15 0 23 
148 1 0.00330499 0.00847028 0.0396277 0 0 0 0 0 -1.09805 0 0 -4.52012e-06 0 0 0 0.0005 273.15 0 23 
242 1 0.00227526 0.0101223 0.0410509 0 0 0 0 0 -1.09805 0 0 -4.52012e-06 0 0 0 0.0005 273.15 0 23 
171 1 0.00722681 0.0105355 0.0411154 0 0 0 0 0 -1.09805 0 0 -4.52012e-06 0 0 0 0.0005 273.15 0 23 
169 1 0.0188329 0.0125195 0.0402122 0 0 0 0 0 -1.09805 0 0 -4.52012e-06 0 0 0 0.0005 273.15 0 23 
238 1 0.0232775 0.0122643 0.0406837 0 0 0 0 0 -1.09805 0 0 -4.52012e-06 0 0 0 0.0005 273.15 0 23 
279 1 0.0029146 0.0154764 0.0021151 0 0 0 -0.00475383 -0.172433 0.317591 0 0 -4.52012e-06 467.521 -7.46264 111.825 0.0005 273.15 0 23 
295 1 0.00152757 0.0176189 0.0030454 0 0 0 -0.231089 -0.0457887 0.413976 1.06446e-05 9.98495e-06 3.58337e-05 -131.954 399.846 -28.7215 0.0005 273.15 0 23 
272 1 0.00202233 0.0214177 0.00507741 0 0 0 0.176866 0.00568585 0.00151932 5.65087e-05 -0.000138195 -0.000118432 490.419 -681.288 -509.126 0.0005 273.15 0 23 
345 1 0.0271697 0.0203344 0.0065929 0 0 0 0 0 0.610057 0 0 -4.52012e-06 0 0 0 0.0005 273.15 0 23 
265 1 0.00787665 0.0224628 0.00193705 0 0 0 -0.0789613 0.0664471 0.483875 0 0 -4.52012e-06 -84.7453 -100.706 -3.0959e-13 0.0005 273.15 0 23 
282 1 0.00492574 0.0234974 0.00659296 0 0 0 0 0 0.610101 0 0 -4.52012e-06 0 0 0 0.0005 273.15 0 23 
305 1 0.00640874 0.023431 0.00136483 0 0 0 -0.148356 -0.478875 -0.330523 0 0 -4.52012e-06 -871.834 270.095 -8.14552e-13 0.0005 273.15 0 23 
369 1 0.00518856 0.0270727 0.00644364 0 0 0 0 0 0.614461 0 0 -4.52012e-06 0 0 0 0.0005 273.15 0 23 
334 1 0.00217242 0.0204157 0.000669805 0 0 0 0.258442 0.231396 -0.0724033 0 0 -4.52012e-06 -689.55 32.9532 489.942 0.0005 273.15 0 23 
289 1 0.0177554 0.0179051 0.0052417 0 0 0 0 0 0.648521 0 0 -4.52012e-06 0 0 0 0.0005 273.15 0 23 
281 1 0.00682219 0.0185275 0.00105337 0 0 0 0.157738 -0.0238578 0.216978 0 0 -4.52012e-06 107.006 252.051 103.285 0.0005 273.15 0 23 
293 1 0.00233399 0.0206664 0.00446155 0 0 0 -0.459372 0.0691144 -0.17319 -5.65087e-05 0.000138195 0.000109392 -277.522 936.058 -316.322 0.0005 273.15 0 23 
331 1 0.0138136 0.0204498 0.00528803 0 0 0 0.00985192 0.0612165 0.630409 2.93809e-05 0.000182563 -5.3448e-05 -60.7008 9.76891 -2.14818e-17 0.0005 273.15 0 23 
314 1 0.0218658 0.0242787 0.00320382 0 0 0 -0.155936 0.343167 0.193489 0 0 -4.52012e-06 933.465 424.169 -1.95545e-12 0.0005 273.15 0 23 
352 1 0.0109054 0.024521 0.00482973 0 0 0 0.0150563 -0.168898 -0.754972 0 0 -4.52012e-06 -135.111 -12.0445 -2.99682e-13 0.0005 273.15 0 23 
254 1 0.0142598 0.0251411 0.00446219 0 0 0 0.261594 -0.376875 0.00790218 0 0 -4.52012e-06 -969.835 -673.177 -1.50367e-13 0.0005 273.15 0 23 
283 1 0.0226883 0.0265015 0.00599955 0 0 0 0 0 0.627756 0 0 -4.52012e-06 0 0 0 0.0005 273.15 0 23 
365 1 0.0272382 0.0265515 0.00566196 0 0 0 0 0 0.63748 0 0 -4.52012e-06 0 0 0 0.0005 273.15 0 23 
355 1 0.0228244 0.0294324 0.00607186 0 0 0 0 0 0.625218 0 0 -4.52012e-06 0 0 0 0.0005 273.15 0 23 
313 1 0.00182174 0.0180569 0.00387738 0 0 0 -0.0301402 -0.107392 0.361178 -1.82657e-05 -3.46593e-05 -4.4117e-05 173.538 -36.4319 -216.794 0.0005 273.15 0 23 
350 1 0.0261746 0.0193941 0.0049513 0 0 0 -0.0226471 0.0886928 -0.390253 -0.000186674 0.000731071 -0.00377731 363.879 92.9138 -1.98347e-13 0.0005 273.15 0 23 
324 1 0.00792368 0.0166557 0.00345164 0 0 0 0 0 0.695867 0 0 -4.52012e-06 0 0 0 0.0005 273.15 0 23 
267 1 0.00145847 0.016784 0.00355948 0 0 0 -0.0279071 0.0668558 0.598575 7.62111e-06 2.46744e-05 -5.27707e-06 -274.029 127.172 185.012 0.0005 273.15 0 23 
368 1 0.00495672 0.0179128 0.00138725 0 0 0 0.272337 0.180831 0.278834 0 0 -4.52012e-06 -396.636 518.108 111.825 0.0005 273.15 0 23 
286 1 0.00897181 0.0206542 0.0022048 0 0 0 0.326174 0.214518 0.495699 0 0 -4.52012e-06 -491.59 758.564 103.285 0.0005 273.15 0 23 
373 1 0.00292305 0.0238179 0.00412956 0 0 0 0 0 0.677627 0 0 -4.52012e-06 0 0 0 0.0005 273.15 0 23 
284 1 0.0210978 0.0254664 0.00337668 0 0 0 0 0 0.696342 0 0 -4.52012e-06 0 0 0 0.0005 273.15 0 23 
301 1 0.00932137 0.021247 0.00541793 0 0 0 0.118495 -0.0997157 0.27149 0 0 -4.52012e-06 75.1643 89.3202 -3.0959e-13 0.0005 273.15 0 23 
257 1 0.0238021 0.0200173 0.00110519 0 0 0 0.165445 -0.364093 0.428542 0 0 -4.52012e-06 830.091 377.196 -1.95545e-12 0.0005 273.15 0 23 
370 1 0.0171108 0.0245891 0.00168637 0 0 0 0.381811 0.376768 -0.214323 0 0 -4.52012e-06 767.405 -777.674 1.88433e-12 0.0005 273.15 0 23 